/*--------------------------------*- C++ -*----------------------------------*\
  =========                 |
  \\      /  F ield         | OpenFOAM: The Open Source CFD Toolbox
   \\    /   O peration     | Website:  https://openfoam.org
    \\  /    A nd           | Version:  10
     \\/     M anipulation  |
\*---------------------------------------------------------------------------*/
FoamFile
{
    format      ascii;
    class       volScalarField;
    location    "0";
    object      p;
}
// * * * * * * * * * * * * * * * * * * * * * * * * * * * * * * * * * * * * * //

dimensions      [0 2 -2 0 0 0 0];

internalField   nonuniform List<scalar> 
62500
(
-0.0143712
-0.0385194
-0.0594493
-0.0769811
-0.0914
-0.103052
-0.112279
-0.119411
-0.124755
-0.128589
-0.131163
-0.132697
-0.133384
-0.133391
-0.132859
-0.131908
-0.130638
-0.12913
-0.127451
-0.125654
-0.123781
-0.121866
-0.119932
-0.117999
-0.116079
-0.114182
-0.112313
-0.110476
-0.108672
-0.1069
-0.105161
-0.103453
-0.101772
-0.100117
-0.0984849
-0.0968737
-0.0952807
-0.0937036
-0.0921404
-0.090589
-0.0890477
-0.0875149
-0.0859892
-0.0844695
-0.0829547
-0.0814439
-0.0799363
-0.0784313
-0.0769284
-0.075427
-0.0739269
-0.0724278
-0.0709293
-0.0694313
-0.0679337
-0.0664362
-0.0649389
-0.0634417
-0.0619444
-0.0604471
-0.0589497
-0.0574523
-0.0559548
-0.0544572
-0.0529595
-0.0514617
-0.0499638
-0.0484658
-0.0469678
-0.0454697
-0.0439715
-0.0424733
-0.040975
-0.0394767
-0.0379784
-0.03648
-0.0349816
-0.0334831
-0.0319847
-0.0304861
-0.0289876
-0.0274889
-0.0259903
-0.0244915
-0.0229927
-0.0214939
-0.0199949
-0.0184959
-0.0169969
-0.0154978
-0.0139988
-0.0125001
-0.0110017
-0.00950411
-0.0080079
-0.00651408
-0.00502499
-0.003544
-0.0020697
-0.000644745
-0.0143016
-0.038434
-0.059337
-0.0768566
-0.0912704
-0.102922
-0.112154
-0.119294
-0.124647
-0.128491
-0.131074
-0.132619
-0.133316
-0.133332
-0.132808
-0.131865
-0.130601
-0.129099
-0.127425
-0.125633
-0.123764
-0.121852
-0.119922
-0.117991
-0.116073
-0.114177
-0.112309
-0.110473
-0.10867
-0.106899
-0.105161
-0.103452
-0.101772
-0.100117
-0.0984853
-0.0968741
-0.0952812
-0.0937042
-0.0921409
-0.0905895
-0.0890481
-0.0875153
-0.0859896
-0.0844699
-0.082955
-0.0814441
-0.0799365
-0.0784315
-0.0769286
-0.0754272
-0.0739271
-0.0724279
-0.0709294
-0.0694314
-0.0679337
-0.0664363
-0.064939
-0.0634417
-0.0619444
-0.0604471
-0.0589498
-0.0574523
-0.0559548
-0.0544572
-0.0529595
-0.0514617
-0.0499638
-0.0484658
-0.0469678
-0.0454697
-0.0439715
-0.0424733
-0.040975
-0.0394767
-0.0379784
-0.03648
-0.0349816
-0.0334831
-0.0319847
-0.0304861
-0.0289876
-0.0274889
-0.0259903
-0.0244915
-0.0229927
-0.0214939
-0.0199949
-0.0184959
-0.0169969
-0.0154978
-0.0139989
-0.0125001
-0.0110017
-0.00950414
-0.00800794
-0.00651415
-0.00502511
-0.00354355
-0.00206918
-0.00064821
-0.0142961
-0.0384289
-0.0593283
-0.0768468
-0.0912602
-0.102912
-0.112144
-0.119285
-0.124638
-0.128483
-0.131068
-0.132613
-0.13331
-0.133327
-0.132804
-0.131861
-0.130598
-0.129097
-0.127423
-0.125631
-0.123763
-0.121851
-0.119921
-0.11799
-0.116072
-0.114177
-0.112309
-0.110473
-0.10867
-0.106899
-0.105161
-0.103452
-0.101772
-0.100117
-0.0984853
-0.0968742
-0.0952812
-0.0937042
-0.0921409
-0.0905895
-0.0890482
-0.0875153
-0.0859896
-0.0844699
-0.082955
-0.0814442
-0.0799366
-0.0784315
-0.0769286
-0.0754272
-0.0739271
-0.0724279
-0.0709294
-0.0694314
-0.0679337
-0.0664363
-0.064939
-0.0634417
-0.0619444
-0.0604471
-0.0589498
-0.0574523
-0.0559548
-0.0544572
-0.0529595
-0.0514617
-0.0499638
-0.0484658
-0.0469678
-0.0454697
-0.0439715
-0.0424733
-0.040975
-0.0394767
-0.0379784
-0.03648
-0.0349816
-0.0334831
-0.0319847
-0.0304861
-0.0289876
-0.0274889
-0.0259903
-0.0244915
-0.0229927
-0.0214939
-0.0199949
-0.0184959
-0.0169969
-0.0154978
-0.0139989
-0.0125001
-0.0110017
-0.00950418
-0.00800798
-0.00651419
-0.00502519
-0.00354355
-0.00206909
-0.000648665
-0.0142952
-0.0384301
-0.0593298
-0.0768485
-0.091262
-0.102914
-0.112146
-0.119286
-0.12464
-0.128484
-0.131069
-0.132614
-0.133311
-0.133328
-0.132805
-0.131862
-0.130599
-0.129097
-0.127424
-0.125632
-0.123763
-0.121852
-0.119921
-0.11799
-0.116072
-0.114177
-0.112309
-0.110473
-0.10867
-0.106899
-0.105161
-0.103452
-0.101772
-0.100117
-0.0984853
-0.0968742
-0.0952812
-0.0937042
-0.0921409
-0.0905895
-0.0890482
-0.0875153
-0.0859896
-0.0844699
-0.082955
-0.0814442
-0.0799365
-0.0784315
-0.0769286
-0.0754272
-0.0739271
-0.0724279
-0.0709294
-0.0694314
-0.0679337
-0.0664363
-0.064939
-0.0634417
-0.0619444
-0.0604471
-0.0589498
-0.0574523
-0.0559548
-0.0544572
-0.0529595
-0.0514617
-0.0499638
-0.0484658
-0.0469678
-0.0454697
-0.0439715
-0.0424733
-0.040975
-0.0394767
-0.0379784
-0.03648
-0.0349816
-0.0334831
-0.0319847
-0.0304861
-0.0289876
-0.0274889
-0.0259903
-0.0244915
-0.0229927
-0.0214939
-0.0199949
-0.018496
-0.0169969
-0.0154979
-0.0139989
-0.0125001
-0.0110018
-0.00950423
-0.00800804
-0.00651427
-0.00502529
-0.00354364
-0.0020692
-0.000648852
-0.0142948
-0.0384307
-0.0593305
-0.0768494
-0.091263
-0.102915
-0.112147
-0.119287
-0.124641
-0.128485
-0.13107
-0.132614
-0.133312
-0.133328
-0.132805
-0.131863
-0.130599
-0.129098
-0.127424
-0.125632
-0.123764
-0.121852
-0.119921
-0.11799
-0.116072
-0.114177
-0.112309
-0.110473
-0.10867
-0.106899
-0.105161
-0.103452
-0.101772
-0.100117
-0.0984853
-0.0968742
-0.0952812
-0.0937042
-0.0921409
-0.0905895
-0.0890482
-0.0875153
-0.0859896
-0.0844699
-0.082955
-0.0814442
-0.0799365
-0.0784315
-0.0769286
-0.0754272
-0.0739271
-0.0724279
-0.0709294
-0.0694314
-0.0679337
-0.0664363
-0.064939
-0.0634417
-0.0619444
-0.0604471
-0.0589498
-0.0574523
-0.0559548
-0.0544572
-0.0529595
-0.0514617
-0.0499638
-0.0484658
-0.0469678
-0.0454697
-0.0439715
-0.0424733
-0.040975
-0.0394767
-0.0379784
-0.03648
-0.0349816
-0.0334831
-0.0319847
-0.0304861
-0.0289876
-0.0274889
-0.0259903
-0.0244915
-0.0229928
-0.0214939
-0.019995
-0.018496
-0.0169969
-0.0154979
-0.0139989
-0.0125002
-0.0110019
-0.00950431
-0.00800813
-0.00651438
-0.00502541
-0.00354378
-0.00206938
-0.000649023
-0.0142949
-0.0384313
-0.0593313
-0.0768503
-0.0912639
-0.102916
-0.112148
-0.119288
-0.124642
-0.128486
-0.13107
-0.132615
-0.133312
-0.133329
-0.132806
-0.131863
-0.1306
-0.129098
-0.127424
-0.125632
-0.123764
-0.121852
-0.119921
-0.11799
-0.116072
-0.114177
-0.112309
-0.110473
-0.10867
-0.106899
-0.105161
-0.103452
-0.101772
-0.100117
-0.0984853
-0.0968742
-0.0952812
-0.0937042
-0.0921409
-0.0905895
-0.0890481
-0.0875153
-0.0859896
-0.0844699
-0.082955
-0.0814442
-0.0799365
-0.0784315
-0.0769286
-0.0754272
-0.0739271
-0.0724279
-0.0709294
-0.0694314
-0.0679337
-0.0664363
-0.064939
-0.0634417
-0.0619444
-0.0604471
-0.0589498
-0.0574523
-0.0559548
-0.0544572
-0.0529595
-0.0514617
-0.0499638
-0.0484658
-0.0469678
-0.0454697
-0.0439715
-0.0424733
-0.040975
-0.0394767
-0.0379784
-0.03648
-0.0349816
-0.0334831
-0.0319847
-0.0304861
-0.0289876
-0.027489
-0.0259903
-0.0244916
-0.0229928
-0.0214939
-0.019995
-0.018496
-0.016997
-0.0154979
-0.013999
-0.0125002
-0.0110019
-0.00950439
-0.00800823
-0.0065145
-0.00502555
-0.00354393
-0.00206956
-0.000649155
-0.014295
-0.0384318
-0.0593319
-0.076851
-0.0912646
-0.102917
-0.112149
-0.119289
-0.124642
-0.128486
-0.131071
-0.132615
-0.133313
-0.133329
-0.132806
-0.131863
-0.1306
-0.129098
-0.127424
-0.125632
-0.123764
-0.121852
-0.119921
-0.11799
-0.116072
-0.114177
-0.112309
-0.110473
-0.10867
-0.106899
-0.105161
-0.103452
-0.101772
-0.100117
-0.0984853
-0.0968742
-0.0952812
-0.0937042
-0.0921409
-0.0905895
-0.0890481
-0.0875153
-0.0859896
-0.0844699
-0.082955
-0.0814442
-0.0799365
-0.0784315
-0.0769286
-0.0754272
-0.0739271
-0.0724279
-0.0709294
-0.0694314
-0.0679337
-0.0664363
-0.064939
-0.0634417
-0.0619444
-0.0604471
-0.0589498
-0.0574523
-0.0559548
-0.0544572
-0.0529595
-0.0514617
-0.0499638
-0.0484658
-0.0469678
-0.0454697
-0.0439715
-0.0424733
-0.040975
-0.0394767
-0.0379784
-0.03648
-0.0349816
-0.0334832
-0.0319847
-0.0304861
-0.0289876
-0.027489
-0.0259903
-0.0244916
-0.0229928
-0.0214939
-0.019995
-0.018496
-0.016997
-0.015498
-0.013999
-0.0125003
-0.011002
-0.00950447
-0.00800833
-0.00651461
-0.00502569
-0.00354408
-0.00206973
-0.000649261
-0.0142952
-0.0384322
-0.0593325
-0.0768515
-0.0912652
-0.102917
-0.112149
-0.119289
-0.124642
-0.128487
-0.131071
-0.132616
-0.133313
-0.133329
-0.132806
-0.131863
-0.1306
-0.129098
-0.127424
-0.125632
-0.123764
-0.121852
-0.119921
-0.11799
-0.116072
-0.114177
-0.112309
-0.110473
-0.10867
-0.106899
-0.105161
-0.103452
-0.101772
-0.100117
-0.0984853
-0.0968742
-0.0952812
-0.0937042
-0.0921409
-0.0905895
-0.0890481
-0.0875153
-0.0859896
-0.0844699
-0.082955
-0.0814442
-0.0799365
-0.0784315
-0.0769286
-0.0754272
-0.0739271
-0.0724279
-0.0709294
-0.0694314
-0.0679337
-0.0664363
-0.064939
-0.0634417
-0.0619444
-0.0604471
-0.0589498
-0.0574523
-0.0559548
-0.0544572
-0.0529595
-0.0514617
-0.0499638
-0.0484658
-0.0469678
-0.0454697
-0.0439715
-0.0424733
-0.040975
-0.0394767
-0.0379784
-0.03648
-0.0349816
-0.0334832
-0.0319847
-0.0304861
-0.0289876
-0.027489
-0.0259903
-0.0244916
-0.0229928
-0.0214939
-0.019995
-0.018496
-0.016997
-0.015498
-0.0139991
-0.0125003
-0.0110021
-0.00950455
-0.00800842
-0.00651472
-0.00502582
-0.00354423
-0.00206988
-0.000649348
-0.0142953
-0.0384326
-0.0593328
-0.0768519
-0.0912656
-0.102918
-0.112149
-0.11929
-0.124643
-0.128487
-0.131071
-0.132616
-0.133313
-0.133329
-0.132806
-0.131863
-0.1306
-0.129098
-0.127424
-0.125632
-0.123764
-0.121852
-0.119921
-0.11799
-0.116073
-0.114177
-0.112309
-0.110473
-0.10867
-0.106899
-0.105161
-0.103452
-0.101772
-0.100117
-0.0984853
-0.0968742
-0.0952812
-0.0937042
-0.0921409
-0.0905895
-0.0890481
-0.0875153
-0.0859896
-0.0844699
-0.082955
-0.0814442
-0.0799365
-0.0784315
-0.0769286
-0.0754272
-0.0739271
-0.0724279
-0.0709294
-0.0694314
-0.0679337
-0.0664363
-0.064939
-0.0634417
-0.0619444
-0.0604471
-0.0589498
-0.0574523
-0.0559548
-0.0544572
-0.0529595
-0.0514617
-0.0499638
-0.0484658
-0.0469678
-0.0454697
-0.0439715
-0.0424733
-0.040975
-0.0394767
-0.0379784
-0.03648
-0.0349816
-0.0334832
-0.0319847
-0.0304861
-0.0289876
-0.027489
-0.0259903
-0.0244916
-0.0229928
-0.0214939
-0.019995
-0.0184961
-0.016997
-0.015498
-0.0139991
-0.0125004
-0.0110021
-0.00950462
-0.0080085
-0.00651482
-0.00502593
-0.00354435
-0.00207
-0.000649418
-0.0142955
-0.0384328
-0.0593331
-0.0768522
-0.0912658
-0.102918
-0.11215
-0.11929
-0.124643
-0.128487
-0.131071
-0.132616
-0.133313
-0.133329
-0.132806
-0.131863
-0.1306
-0.129098
-0.127424
-0.125632
-0.123764
-0.121852
-0.119921
-0.11799
-0.116073
-0.114177
-0.112309
-0.110473
-0.10867
-0.106899
-0.105161
-0.103452
-0.101772
-0.100117
-0.0984853
-0.0968742
-0.0952812
-0.0937042
-0.0921409
-0.0905895
-0.0890481
-0.0875153
-0.0859896
-0.0844699
-0.082955
-0.0814442
-0.0799365
-0.0784315
-0.0769286
-0.0754272
-0.0739271
-0.0724279
-0.0709294
-0.0694314
-0.0679337
-0.0664363
-0.064939
-0.0634417
-0.0619444
-0.0604471
-0.0589498
-0.0574523
-0.0559548
-0.0544572
-0.0529595
-0.0514617
-0.0499638
-0.0484658
-0.0469678
-0.0454697
-0.0439715
-0.0424733
-0.040975
-0.0394767
-0.0379784
-0.03648
-0.0349816
-0.0334832
-0.0319847
-0.0304861
-0.0289876
-0.027489
-0.0259903
-0.0244916
-0.0229928
-0.021494
-0.019995
-0.0184961
-0.0169971
-0.0154981
-0.0139991
-0.0125004
-0.0110022
-0.00950467
-0.00800857
-0.0065149
-0.00502602
-0.00354444
-0.0020701
-0.000649472
-0.0142955
-0.038433
-0.0593333
-0.0768524
-0.091266
-0.102918
-0.11215
-0.11929
-0.124643
-0.128487
-0.131071
-0.132616
-0.133313
-0.13333
-0.132806
-0.131863
-0.1306
-0.129098
-0.127425
-0.125632
-0.123764
-0.121852
-0.119921
-0.11799
-0.116073
-0.114177
-0.112309
-0.110473
-0.10867
-0.106899
-0.105161
-0.103452
-0.101772
-0.100117
-0.0984853
-0.0968742
-0.0952812
-0.0937042
-0.0921409
-0.0905895
-0.0890481
-0.0875153
-0.0859896
-0.0844699
-0.082955
-0.0814442
-0.0799365
-0.0784315
-0.0769286
-0.0754272
-0.0739271
-0.0724279
-0.0709294
-0.0694314
-0.0679337
-0.0664363
-0.064939
-0.0634417
-0.0619444
-0.0604471
-0.0589498
-0.0574523
-0.0559548
-0.0544572
-0.0529595
-0.0514617
-0.0499638
-0.0484658
-0.0469678
-0.0454697
-0.0439715
-0.0424733
-0.040975
-0.0394767
-0.0379784
-0.03648
-0.0349816
-0.0334832
-0.0319847
-0.0304861
-0.0289876
-0.027489
-0.0259903
-0.0244916
-0.0229928
-0.021494
-0.0199951
-0.0184961
-0.0169971
-0.0154981
-0.0139992
-0.0125005
-0.0110022
-0.00950471
-0.00800862
-0.00651496
-0.00502608
-0.00354451
-0.00207017
-0.00064951
-0.0142956
-0.0384331
-0.0593334
-0.0768525
-0.0912661
-0.102918
-0.11215
-0.11929
-0.124643
-0.128487
-0.131071
-0.132616
-0.133313
-0.13333
-0.132806
-0.131863
-0.1306
-0.129098
-0.127425
-0.125632
-0.123764
-0.121852
-0.119921
-0.11799
-0.116073
-0.114177
-0.112309
-0.110473
-0.10867
-0.106899
-0.105161
-0.103452
-0.101772
-0.100117
-0.0984853
-0.0968742
-0.0952812
-0.0937042
-0.0921409
-0.0905895
-0.0890481
-0.0875153
-0.0859896
-0.0844699
-0.082955
-0.0814442
-0.0799365
-0.0784315
-0.0769286
-0.0754272
-0.0739271
-0.0724279
-0.0709294
-0.0694314
-0.0679337
-0.0664363
-0.064939
-0.0634417
-0.0619444
-0.0604471
-0.0589498
-0.0574523
-0.0559548
-0.0544572
-0.0529595
-0.0514617
-0.0499638
-0.0484658
-0.0469678
-0.0454697
-0.0439715
-0.0424733
-0.040975
-0.0394767
-0.0379784
-0.03648
-0.0349816
-0.0334832
-0.0319847
-0.0304861
-0.0289876
-0.027489
-0.0259903
-0.0244916
-0.0229928
-0.021494
-0.0199951
-0.0184961
-0.0169971
-0.0154981
-0.0139992
-0.0125005
-0.0110022
-0.00950474
-0.00800865
-0.00651499
-0.00502612
-0.00354456
-0.00207022
-0.000649533
-0.0142956
-0.0384331
-0.0593335
-0.0768526
-0.0912662
-0.102918
-0.11215
-0.11929
-0.124643
-0.128487
-0.131071
-0.132616
-0.133313
-0.13333
-0.132806
-0.131863
-0.1306
-0.129098
-0.127425
-0.125632
-0.123764
-0.121852
-0.119921
-0.11799
-0.116073
-0.114177
-0.112309
-0.110473
-0.10867
-0.106899
-0.105161
-0.103452
-0.101772
-0.100117
-0.0984853
-0.0968742
-0.0952812
-0.0937042
-0.0921409
-0.0905895
-0.0890481
-0.0875153
-0.0859896
-0.0844699
-0.082955
-0.0814442
-0.0799365
-0.0784315
-0.0769286
-0.0754272
-0.0739271
-0.0724279
-0.0709294
-0.0694314
-0.0679337
-0.0664363
-0.064939
-0.0634417
-0.0619444
-0.0604471
-0.0589498
-0.0574523
-0.0559548
-0.0544572
-0.0529595
-0.0514617
-0.0499638
-0.0484658
-0.0469678
-0.0454697
-0.0439715
-0.0424733
-0.040975
-0.0394767
-0.0379784
-0.03648
-0.0349816
-0.0334832
-0.0319847
-0.0304861
-0.0289876
-0.027489
-0.0259903
-0.0244916
-0.0229928
-0.021494
-0.0199951
-0.0184961
-0.0169971
-0.0154981
-0.0139992
-0.0125005
-0.0110022
-0.00950475
-0.00800866
-0.00651501
-0.00502613
-0.00354457
-0.00207023
-0.000649541
-0.0142956
-0.0384331
-0.0593334
-0.0768525
-0.0912661
-0.102918
-0.11215
-0.11929
-0.124643
-0.128487
-0.131071
-0.132616
-0.133313
-0.13333
-0.132806
-0.131863
-0.1306
-0.129098
-0.127425
-0.125632
-0.123764
-0.121852
-0.119921
-0.11799
-0.116073
-0.114177
-0.112309
-0.110473
-0.10867
-0.106899
-0.105161
-0.103452
-0.101772
-0.100117
-0.0984853
-0.0968742
-0.0952812
-0.0937042
-0.0921409
-0.0905895
-0.0890481
-0.0875153
-0.0859896
-0.0844699
-0.082955
-0.0814442
-0.0799365
-0.0784315
-0.0769286
-0.0754272
-0.0739271
-0.0724279
-0.0709294
-0.0694314
-0.0679337
-0.0664363
-0.064939
-0.0634417
-0.0619444
-0.0604471
-0.0589498
-0.0574523
-0.0559548
-0.0544572
-0.0529595
-0.0514617
-0.0499638
-0.0484658
-0.0469678
-0.0454697
-0.0439715
-0.0424733
-0.040975
-0.0394767
-0.0379784
-0.03648
-0.0349816
-0.0334832
-0.0319847
-0.0304861
-0.0289876
-0.027489
-0.0259903
-0.0244916
-0.0229928
-0.021494
-0.0199951
-0.0184961
-0.0169971
-0.0154981
-0.0139992
-0.0125005
-0.0110022
-0.00950474
-0.00800865
-0.00651499
-0.00502612
-0.00354456
-0.00207022
-0.000649533
-0.0142955
-0.038433
-0.0593333
-0.0768524
-0.091266
-0.102918
-0.11215
-0.11929
-0.124643
-0.128487
-0.131071
-0.132616
-0.133313
-0.13333
-0.132806
-0.131863
-0.1306
-0.129098
-0.127425
-0.125632
-0.123764
-0.121852
-0.119921
-0.11799
-0.116073
-0.114177
-0.112309
-0.110473
-0.10867
-0.106899
-0.105161
-0.103452
-0.101772
-0.100117
-0.0984853
-0.0968742
-0.0952812
-0.0937042
-0.0921409
-0.0905895
-0.0890481
-0.0875153
-0.0859896
-0.0844699
-0.082955
-0.0814442
-0.0799365
-0.0784315
-0.0769286
-0.0754272
-0.0739271
-0.0724279
-0.0709294
-0.0694314
-0.0679337
-0.0664363
-0.064939
-0.0634417
-0.0619444
-0.0604471
-0.0589498
-0.0574523
-0.0559548
-0.0544572
-0.0529595
-0.0514617
-0.0499638
-0.0484658
-0.0469678
-0.0454697
-0.0439715
-0.0424733
-0.040975
-0.0394767
-0.0379784
-0.03648
-0.0349816
-0.0334832
-0.0319847
-0.0304861
-0.0289876
-0.027489
-0.0259903
-0.0244916
-0.0229928
-0.021494
-0.0199951
-0.0184961
-0.0169971
-0.0154981
-0.0139992
-0.0125005
-0.0110022
-0.00950471
-0.00800862
-0.00651496
-0.00502608
-0.00354451
-0.00207017
-0.00064951
-0.0142955
-0.0384328
-0.0593331
-0.0768522
-0.0912658
-0.102918
-0.11215
-0.11929
-0.124643
-0.128487
-0.131071
-0.132616
-0.133313
-0.133329
-0.132806
-0.131863
-0.1306
-0.129098
-0.127424
-0.125632
-0.123764
-0.121852
-0.119921
-0.11799
-0.116073
-0.114177
-0.112309
-0.110473
-0.10867
-0.106899
-0.105161
-0.103452
-0.101772
-0.100117
-0.0984853
-0.0968742
-0.0952812
-0.0937042
-0.0921409
-0.0905895
-0.0890481
-0.0875153
-0.0859896
-0.0844699
-0.082955
-0.0814442
-0.0799365
-0.0784315
-0.0769286
-0.0754272
-0.0739271
-0.0724279
-0.0709294
-0.0694314
-0.0679337
-0.0664363
-0.064939
-0.0634417
-0.0619444
-0.0604471
-0.0589498
-0.0574523
-0.0559548
-0.0544572
-0.0529595
-0.0514617
-0.0499638
-0.0484658
-0.0469678
-0.0454697
-0.0439715
-0.0424733
-0.040975
-0.0394767
-0.0379784
-0.03648
-0.0349816
-0.0334832
-0.0319847
-0.0304861
-0.0289876
-0.027489
-0.0259903
-0.0244916
-0.0229928
-0.021494
-0.019995
-0.0184961
-0.0169971
-0.0154981
-0.0139991
-0.0125004
-0.0110022
-0.00950467
-0.00800857
-0.0065149
-0.00502602
-0.00354444
-0.0020701
-0.000649472
-0.0142953
-0.0384326
-0.0593328
-0.0768519
-0.0912656
-0.102918
-0.112149
-0.11929
-0.124643
-0.128487
-0.131071
-0.132616
-0.133313
-0.133329
-0.132806
-0.131863
-0.1306
-0.129098
-0.127424
-0.125632
-0.123764
-0.121852
-0.119921
-0.11799
-0.116073
-0.114177
-0.112309
-0.110473
-0.10867
-0.106899
-0.105161
-0.103452
-0.101772
-0.100117
-0.0984853
-0.0968742
-0.0952812
-0.0937042
-0.0921409
-0.0905895
-0.0890481
-0.0875153
-0.0859896
-0.0844699
-0.082955
-0.0814442
-0.0799365
-0.0784315
-0.0769286
-0.0754272
-0.0739271
-0.0724279
-0.0709294
-0.0694314
-0.0679337
-0.0664363
-0.064939
-0.0634417
-0.0619444
-0.0604471
-0.0589498
-0.0574523
-0.0559548
-0.0544572
-0.0529595
-0.0514617
-0.0499638
-0.0484658
-0.0469678
-0.0454697
-0.0439715
-0.0424733
-0.040975
-0.0394767
-0.0379784
-0.03648
-0.0349816
-0.0334832
-0.0319847
-0.0304861
-0.0289876
-0.027489
-0.0259903
-0.0244916
-0.0229928
-0.0214939
-0.019995
-0.0184961
-0.016997
-0.015498
-0.0139991
-0.0125004
-0.0110021
-0.00950462
-0.0080085
-0.00651482
-0.00502593
-0.00354435
-0.00207
-0.000649418
-0.0142952
-0.0384322
-0.0593324
-0.0768515
-0.0912652
-0.102917
-0.112149
-0.119289
-0.124642
-0.128487
-0.131071
-0.132616
-0.133313
-0.133329
-0.132806
-0.131863
-0.1306
-0.129098
-0.127424
-0.125632
-0.123764
-0.121852
-0.119921
-0.11799
-0.116072
-0.114177
-0.112309
-0.110473
-0.10867
-0.106899
-0.105161
-0.103452
-0.101772
-0.100117
-0.0984853
-0.0968742
-0.0952812
-0.0937042
-0.0921409
-0.0905895
-0.0890481
-0.0875153
-0.0859896
-0.0844699
-0.082955
-0.0814442
-0.0799365
-0.0784315
-0.0769286
-0.0754272
-0.0739271
-0.0724279
-0.0709294
-0.0694314
-0.0679337
-0.0664363
-0.064939
-0.0634417
-0.0619444
-0.0604471
-0.0589498
-0.0574523
-0.0559548
-0.0544572
-0.0529595
-0.0514617
-0.0499638
-0.0484658
-0.0469678
-0.0454697
-0.0439715
-0.0424733
-0.040975
-0.0394767
-0.0379784
-0.03648
-0.0349816
-0.0334832
-0.0319847
-0.0304861
-0.0289876
-0.027489
-0.0259903
-0.0244916
-0.0229928
-0.0214939
-0.019995
-0.018496
-0.016997
-0.015498
-0.0139991
-0.0125003
-0.0110021
-0.00950455
-0.00800842
-0.00651472
-0.00502582
-0.00354423
-0.00206988
-0.000649348
-0.014295
-0.0384318
-0.0593319
-0.076851
-0.0912646
-0.102917
-0.112149
-0.119289
-0.124642
-0.128486
-0.131071
-0.132615
-0.133313
-0.133329
-0.132806
-0.131863
-0.1306
-0.129098
-0.127424
-0.125632
-0.123764
-0.121852
-0.119921
-0.11799
-0.116072
-0.114177
-0.112309
-0.110473
-0.10867
-0.106899
-0.105161
-0.103452
-0.101772
-0.100117
-0.0984853
-0.0968742
-0.0952812
-0.0937042
-0.0921409
-0.0905895
-0.0890481
-0.0875153
-0.0859896
-0.0844699
-0.082955
-0.0814442
-0.0799365
-0.0784315
-0.0769286
-0.0754272
-0.0739271
-0.0724279
-0.0709294
-0.0694314
-0.0679337
-0.0664363
-0.064939
-0.0634417
-0.0619444
-0.0604471
-0.0589498
-0.0574523
-0.0559548
-0.0544572
-0.0529595
-0.0514617
-0.0499638
-0.0484658
-0.0469678
-0.0454697
-0.0439715
-0.0424733
-0.040975
-0.0394767
-0.0379784
-0.03648
-0.0349816
-0.0334832
-0.0319847
-0.0304861
-0.0289876
-0.027489
-0.0259903
-0.0244916
-0.0229928
-0.0214939
-0.019995
-0.018496
-0.016997
-0.015498
-0.013999
-0.0125003
-0.011002
-0.00950447
-0.00800833
-0.00651461
-0.00502569
-0.00354408
-0.00206973
-0.000649261
-0.0142949
-0.0384313
-0.0593313
-0.0768503
-0.0912639
-0.102916
-0.112148
-0.119288
-0.124642
-0.128486
-0.13107
-0.132615
-0.133312
-0.133329
-0.132806
-0.131863
-0.1306
-0.129098
-0.127424
-0.125632
-0.123764
-0.121852
-0.119921
-0.11799
-0.116072
-0.114177
-0.112309
-0.110473
-0.10867
-0.106899
-0.105161
-0.103452
-0.101772
-0.100117
-0.0984853
-0.0968742
-0.0952812
-0.0937042
-0.0921409
-0.0905895
-0.0890481
-0.0875153
-0.0859896
-0.0844699
-0.082955
-0.0814442
-0.0799365
-0.0784315
-0.0769286
-0.0754272
-0.0739271
-0.0724279
-0.0709294
-0.0694314
-0.0679337
-0.0664363
-0.064939
-0.0634417
-0.0619444
-0.0604471
-0.0589498
-0.0574523
-0.0559548
-0.0544572
-0.0529595
-0.0514617
-0.0499638
-0.0484658
-0.0469678
-0.0454697
-0.0439715
-0.0424733
-0.040975
-0.0394767
-0.0379784
-0.03648
-0.0349816
-0.0334831
-0.0319847
-0.0304861
-0.0289876
-0.027489
-0.0259903
-0.0244916
-0.0229928
-0.0214939
-0.019995
-0.018496
-0.016997
-0.0154979
-0.013999
-0.0125002
-0.0110019
-0.00950439
-0.00800823
-0.00651449
-0.00502555
-0.00354393
-0.00206956
-0.000649155
-0.0142948
-0.0384307
-0.0593305
-0.0768494
-0.0912629
-0.102915
-0.112147
-0.119287
-0.124641
-0.128485
-0.13107
-0.132614
-0.133312
-0.133328
-0.132805
-0.131863
-0.130599
-0.129098
-0.127424
-0.125632
-0.123764
-0.121852
-0.119921
-0.11799
-0.116072
-0.114177
-0.112309
-0.110473
-0.10867
-0.106899
-0.105161
-0.103452
-0.101772
-0.100117
-0.0984853
-0.0968742
-0.0952812
-0.0937042
-0.0921409
-0.0905895
-0.0890482
-0.0875153
-0.0859896
-0.0844699
-0.082955
-0.0814442
-0.0799365
-0.0784315
-0.0769286
-0.0754272
-0.0739271
-0.0724279
-0.0709294
-0.0694314
-0.0679337
-0.0664363
-0.064939
-0.0634417
-0.0619444
-0.0604471
-0.0589498
-0.0574523
-0.0559548
-0.0544572
-0.0529595
-0.0514617
-0.0499638
-0.0484658
-0.0469678
-0.0454697
-0.0439715
-0.0424733
-0.040975
-0.0394767
-0.0379784
-0.03648
-0.0349816
-0.0334831
-0.0319847
-0.0304861
-0.0289876
-0.0274889
-0.0259903
-0.0244916
-0.0229928
-0.0214939
-0.019995
-0.018496
-0.0169969
-0.0154979
-0.0139989
-0.0125002
-0.0110019
-0.00950431
-0.00800813
-0.00651437
-0.00502541
-0.00354378
-0.00206938
-0.000649023
-0.0142952
-0.0384301
-0.0593297
-0.0768485
-0.0912619
-0.102914
-0.112146
-0.119286
-0.12464
-0.128484
-0.131069
-0.132614
-0.133311
-0.133328
-0.132805
-0.131862
-0.130599
-0.129097
-0.127424
-0.125632
-0.123763
-0.121852
-0.119921
-0.11799
-0.116072
-0.114177
-0.112309
-0.110473
-0.10867
-0.106899
-0.105161
-0.103452
-0.101772
-0.100117
-0.0984853
-0.0968742
-0.0952812
-0.0937042
-0.0921409
-0.0905895
-0.0890482
-0.0875153
-0.0859896
-0.0844699
-0.082955
-0.0814442
-0.0799365
-0.0784315
-0.0769286
-0.0754272
-0.0739271
-0.0724279
-0.0709294
-0.0694314
-0.0679337
-0.0664363
-0.064939
-0.0634417
-0.0619444
-0.0604471
-0.0589498
-0.0574523
-0.0559548
-0.0544572
-0.0529595
-0.0514617
-0.0499638
-0.0484658
-0.0469678
-0.0454697
-0.0439715
-0.0424733
-0.040975
-0.0394767
-0.0379784
-0.03648
-0.0349816
-0.0334831
-0.0319847
-0.0304861
-0.0289876
-0.0274889
-0.0259903
-0.0244915
-0.0229927
-0.0214939
-0.019995
-0.018496
-0.0169969
-0.0154979
-0.0139989
-0.0125001
-0.0110018
-0.00950423
-0.00800804
-0.00651427
-0.00502528
-0.00354364
-0.0020692
-0.000648852
-0.0142961
-0.0384289
-0.0593283
-0.0768468
-0.0912601
-0.102912
-0.112144
-0.119285
-0.124638
-0.128483
-0.131068
-0.132613
-0.13331
-0.133327
-0.132804
-0.131861
-0.130598
-0.129097
-0.127423
-0.125631
-0.123763
-0.121851
-0.119921
-0.11799
-0.116072
-0.114177
-0.112309
-0.110473
-0.10867
-0.106899
-0.105161
-0.103452
-0.101772
-0.100117
-0.0984853
-0.0968742
-0.0952812
-0.0937042
-0.0921409
-0.0905895
-0.0890482
-0.0875153
-0.0859896
-0.0844699
-0.082955
-0.0814442
-0.0799366
-0.0784315
-0.0769286
-0.0754272
-0.0739271
-0.0724279
-0.0709294
-0.0694314
-0.0679337
-0.0664363
-0.064939
-0.0634417
-0.0619444
-0.0604471
-0.0589498
-0.0574523
-0.0559548
-0.0544572
-0.0529595
-0.0514617
-0.0499638
-0.0484658
-0.0469678
-0.0454697
-0.0439715
-0.0424733
-0.040975
-0.0394767
-0.0379784
-0.03648
-0.0349816
-0.0334831
-0.0319847
-0.0304861
-0.0289876
-0.0274889
-0.0259903
-0.0244915
-0.0229927
-0.0214939
-0.0199949
-0.0184959
-0.0169969
-0.0154978
-0.0139989
-0.0125001
-0.0110017
-0.00950417
-0.00800797
-0.00651418
-0.00502518
-0.00354354
-0.00206908
-0.000648666
-0.0143016
-0.038434
-0.0593369
-0.0768566
-0.0912703
-0.102922
-0.112154
-0.119294
-0.124647
-0.128491
-0.131074
-0.132619
-0.133316
-0.133332
-0.132808
-0.131865
-0.130601
-0.129099
-0.127425
-0.125633
-0.123764
-0.121852
-0.119922
-0.117991
-0.116073
-0.114177
-0.112309
-0.110473
-0.10867
-0.106899
-0.105161
-0.103452
-0.101772
-0.100117
-0.0984853
-0.0968741
-0.0952812
-0.0937042
-0.0921409
-0.0905895
-0.0890481
-0.0875153
-0.0859896
-0.0844699
-0.082955
-0.0814441
-0.0799365
-0.0784315
-0.0769286
-0.0754272
-0.0739271
-0.0724279
-0.0709294
-0.0694314
-0.0679337
-0.0664363
-0.064939
-0.0634417
-0.0619444
-0.0604471
-0.0589498
-0.0574523
-0.0559548
-0.0544572
-0.0529595
-0.0514617
-0.0499638
-0.0484658
-0.0469678
-0.0454697
-0.0439715
-0.0424733
-0.040975
-0.0394767
-0.0379784
-0.03648
-0.0349816
-0.0334831
-0.0319847
-0.0304861
-0.0289876
-0.0274889
-0.0259903
-0.0244915
-0.0229927
-0.0214939
-0.0199949
-0.0184959
-0.0169969
-0.0154978
-0.0139989
-0.0125001
-0.0110017
-0.00950414
-0.00800793
-0.00651414
-0.0050251
-0.00354355
-0.00206917
-0.000648209
-0.0143712
-0.0385194
-0.0594493
-0.0769811
-0.0914
-0.103052
-0.112279
-0.119411
-0.124755
-0.128589
-0.131163
-0.132697
-0.133384
-0.133391
-0.132859
-0.131908
-0.130638
-0.12913
-0.127451
-0.125654
-0.123781
-0.121866
-0.119932
-0.117999
-0.116079
-0.114182
-0.112313
-0.110476
-0.108672
-0.1069
-0.105161
-0.103453
-0.101772
-0.100117
-0.0984849
-0.0968737
-0.0952807
-0.0937036
-0.0921404
-0.090589
-0.0890477
-0.0875149
-0.0859892
-0.0844695
-0.0829547
-0.0814439
-0.0799363
-0.0784313
-0.0769284
-0.075427
-0.0739269
-0.0724278
-0.0709293
-0.0694313
-0.0679337
-0.0664362
-0.0649389
-0.0634417
-0.0619444
-0.0604471
-0.0589497
-0.0574523
-0.0559548
-0.0544572
-0.0529595
-0.0514617
-0.0499638
-0.0484658
-0.0469678
-0.0454697
-0.0439715
-0.0424733
-0.040975
-0.0394767
-0.0379784
-0.03648
-0.0349816
-0.0334831
-0.0319847
-0.0304861
-0.0289876
-0.0274889
-0.0259903
-0.0244915
-0.0229927
-0.0214939
-0.0199949
-0.0184959
-0.0169969
-0.0154978
-0.0139988
-0.0125001
-0.0110017
-0.00950411
-0.0080079
-0.00651408
-0.00502499
-0.00354401
-0.0020697
-0.000644744
-0.0139465
-0.035018
-0.0538524
-0.0700916
-0.0838312
-0.0952499
-0.10456
-0.111995
-0.117787
-0.122158
-0.125316
-0.127451
-0.128733
-0.129311
-0.129316
-0.12886
-0.12804
-0.126935
-0.125614
-0.12413
-0.12253
-0.120848
-0.119114
-0.117348
-0.115569
-0.113788
-0.112015
-0.110255
-0.108513
-0.106791
-0.105091
-0.103412
-0.101754
-0.100116
-0.098496
-0.0968931
-0.0953054
-0.0937314
-0.0921695
-0.0906181
-0.0890759
-0.0875417
-0.0860142
-0.0844923
-0.0829753
-0.0814623
-0.0799526
-0.0784456
-0.0769408
-0.0754377
-0.073936
-0.0724355
-0.0709358
-0.0694367
-0.0679381
-0.0664399
-0.0649419
-0.063444
-0.0619463
-0.0604486
-0.0589509
-0.0574532
-0.0559554
-0.0544576
-0.0529598
-0.0514619
-0.0499639
-0.0484659
-0.0469678
-0.0454697
-0.0439715
-0.0424732
-0.040975
-0.0394767
-0.0379783
-0.0364799
-0.0349815
-0.0334831
-0.0319846
-0.0304861
-0.0289876
-0.027489
-0.0259904
-0.0244918
-0.0229931
-0.0214945
-0.0199958
-0.0184972
-0.0169986
-0.0155003
-0.0140022
-0.0125046
-0.0110077
-0.0095121
-0.00801837
-0.00652744
-0.00504155
-0.00356297
-0.00208095
-0.000648167
-0.0139325
-0.0350893
-0.0539485
-0.0702051
-0.0839514
-0.0953699
-0.104676
-0.112104
-0.117887
-0.122249
-0.125398
-0.127524
-0.128797
-0.129366
-0.129363
-0.1289
-0.128073
-0.126963
-0.125637
-0.12415
-0.122545
-0.120861
-0.119123
-0.117356
-0.115575
-0.113792
-0.112018
-0.110257
-0.108515
-0.106792
-0.105092
-0.103412
-0.101754
-0.100116
-0.0984956
-0.0968926
-0.0953049
-0.0937309
-0.092169
-0.0906176
-0.0890755
-0.0875413
-0.0860138
-0.084492
-0.082975
-0.081462
-0.0799524
-0.0784454
-0.0769406
-0.0754376
-0.0739359
-0.0724354
-0.0709357
-0.0694366
-0.0679381
-0.0664398
-0.0649418
-0.063444
-0.0619463
-0.0604486
-0.0589509
-0.0574532
-0.0559554
-0.0544576
-0.0529598
-0.0514619
-0.0499639
-0.0484659
-0.0469678
-0.0454696
-0.0439715
-0.0424732
-0.040975
-0.0394767
-0.0379783
-0.0364799
-0.0349815
-0.0334831
-0.0319846
-0.0304861
-0.0289876
-0.027489
-0.0259904
-0.0244918
-0.0229931
-0.0214945
-0.0199958
-0.0184972
-0.0169986
-0.0155002
-0.0140021
-0.0125045
-0.0110076
-0.00951193
-0.00801812
-0.00652712
-0.00504125
-0.00356176
-0.00207917
-0.000650643
-0.0139311
-0.0350977
-0.053957
-0.0702148
-0.0839616
-0.0953801
-0.104686
-0.112114
-0.117896
-0.122257
-0.125405
-0.12753
-0.128802
-0.129371
-0.129367
-0.128904
-0.128076
-0.126966
-0.125639
-0.124151
-0.122547
-0.120862
-0.119124
-0.117357
-0.115575
-0.113793
-0.112018
-0.110257
-0.108515
-0.106792
-0.105092
-0.103412
-0.101754
-0.100116
-0.0984956
-0.0968926
-0.0953049
-0.0937308
-0.0921689
-0.0906176
-0.0890755
-0.0875412
-0.0860138
-0.084492
-0.082975
-0.081462
-0.0799523
-0.0784454
-0.0769406
-0.0754375
-0.0739359
-0.0724354
-0.0709357
-0.0694366